
FAST Summary File

Predictions were generated on 06-Aug-2018 at 17:19:22 using FAST (v8.16.00a-bjj, 27-Jul-2016), compiled as a DLL S-Function for Simulink as a 64-bit application using single precision
  compiled with
    NWTC Subroutine Library (v2.09.00, 23-Jul-2016)
    ElastoDyn (v1.04.00a-bjj, 26-Jul-2016)
    BeamDyn (unknown version, unknown date) [not called]
    InflowWind (v3.03.00, 26-Jul-2016)
    AeroDyn14 (v14.05.01a-bjj, 25-Jul-2016)
    AeroDyn (unknown version, unknown date) [not called]
    ServoDyn (v1.06.00a-bjj, 26-Jul-2016)
    HydroDyn (unknown version, unknown date) [not called]
    SubDyn (unknown version, unknown date) [not called]
    MAP (unknown version, unknown date) [not called]
    FEAMooring (unknown version, unknown date) [not called]
    MoorDyn (unknown version, unknown date) [not called]
    OrcaFlexInterface (unknown version, unknown date) [not called]
    IceFloe (unknown version, unknown date) [not called]
    IceDyn (unknown version, unknown date) [not called]


Modeling a land-based turbine
Description from the FAST input file: 
  FAST Certification Test #11: WindPACT 1.5 MW Baseline with many DOFs undergoing a pitch failure.

Interpolation order for input/output time histories: 2 (quadratic)
Number of correction iterations:  0


   Requested Time Steps  
  -------------------------------------------------
  Component          Time Step (s)    Subcycles (-)
  -----------------  ---------------  -------------
  FAST (glue code)    5.000E-03
  InflowWind          5.000E-03              1
  ElastoDyn           5.000E-03              1
  AeroDyn14           5.000E-03              1
  ServoDyn            5.000E-03              1
  FAST output files   5.000E-02             10^-1


   Requested Channels in FAST Output File(s)  
  --------------------------------------------
  Number  Name        Units       Generated by
  ------  ----------  ----------  ------------
       1  Time        (s)         FAST
       2  Wind1VelX   (m/s)       InflowWind
       3  Wind1VelY   (m/s)       InflowWind
       4  Wind1VelZ   (m/s)       InflowWind
       5  LSSTipVxa   (rpm)       ElastoDyn
       6  BldPitch1   (deg)       ElastoDyn
       7  BldPitch2   (deg)       ElastoDyn
       8  GenSpeed    (rpm)       ElastoDyn
       9  RotTorq     (kN·m)      ElastoDyn
      10  RotPwr      (kW)        ElastoDyn
      11  HSShftTq    (kN·m)      ElastoDyn
      12  RotAccel    (deg/s^2)   ElastoDyn
      13  GenAccel    (deg/s^2)   ElastoDyn
      14  LSSTipP     (deg)       ElastoDyn
      15  LSSGagP     (deg)       ElastoDyn
      16  LSSGagVxa   (rpm)       ElastoDyn
      17  GenTq       (kN·m)      ServoDyn
      18  BlPitchC1   (deg)       ServoDyn
      19  GenPwr      (kW)        ServoDyn
